% Model:              BrushLayer_exp_full_eq.mph
% Version:            COMSOL 6.0.0.405
% Date:               Apr 20 2024, 11:33
% Dimension:          2
% Nodes:              84
% Expressions:        3
% Description:        , , 
% Length unit:        m
% R                       Z                        U0 (V)                   Cp0 (mol/m^3)            Cn0 (mol/m^3)
1.0749234174787756E-6     0                        -3.711758594086736E-5    1.0014625526408723       0.9985304003158489
1.0825647836979419E-6     0                        -2.1491661634445112E-5   1.0008443024726073       0.9991491593150041
1.0869232065975022E-6     0                        -1.3543475583943672E-5   1.0005296843495648       0.9994636413653092
1.0925056839744374E-6     0                        -5.912056735233824E-6    1.000227694129241        0.9997656102131934
1.0962759494173612E-6     0                        -2.3776629587702E-6      1.0000879067609723       0.9999054803123802
1.0668718229074952E-6     0                        -6.907725974248622E-5    1.0027251048952033       0.997262490346762
1.0669425807402416E-6     0                        -6.835176643435206E-5    1.002696075954793        0.9972909245268575
1.0669816099944158E-6     0                        -6.795496596793534E-5    1.0026801999828217       0.9973064773056967
1.0588490097809558E-6     0                        -1.9620863353120115E-4   1.007796661947671        0.992265919975094
1.0535097452508605E-6     0                        -3.3508760187845373E-4   1.013349832201945        0.9868199012328723
1.05075443038304E-6       0                        -4.2372193486035786E-4   1.0168964075711524       0.9833465174643061
1.038117984519134E-6      0                        -0.001597811721402767    1.0652819978177157       0.9386310643393276
1.0381179887966244E-6     0                        -0.0015978110572260904   1.0652819700592264       0.9386310892638514
1.0423301332145031E-6     0                        -0.001035969314149942    1.0418899837986981       0.9598131904352156
1.043850420769758E-6      0                        -8.750535751261189E-4    1.0352310308805968       0.9659168163920743
1.0465422817987716E-6     0                        -6.446060600106125E-4    1.0257614540592808       0.9747183411875008
1.0495828584130543E-6     0                        -4.6804461986542226E-4   1.0186329658175184       0.9815768076209825
1.0E-6                    0                        -0.13233349489235616     189.06795692169385       0.005295574722259525
1.0003210165145414E-6     0                        -0.12202354584920788     126.60466490087218       0.00798982643853576
1.0006420330290821E-6     0                        -0.11322140834511378     85.39713142474753        0.011183065974842723
1.0009630495436233E-6     0                        -0.1059270823819397      65.44535648827832        0.014875293332775114
1.0309624458151815E-6     0                        -0.003407953311078192    1.1446070925732015       0.8737464057546889
1.0333476248801361E-6     0                        -0.0026570676064450694   1.1110920828724689       0.9001678602725014
1.0333476253831725E-6     0                        -0.0026570674636370788   1.1110920765500067       0.9001678653393622
1.0357328044133846E-6     0                        -0.002053687053021947    1.0846503834555814       0.921796080535408
1.0249994968951745E-6     0                        -0.006378482354111229    1.287752337056043        0.7767983387016193
1.0269871461939666E-6     0                        -0.005182877062111458    1.2282934748658498       0.8145811454938662
1.0289747958095462E-6     0                        -0.004192700689949541    1.1805783918611135       0.8468971684219267
1.0200303727951355E-6     0                        -0.01076529406105439     1.5325647017368678       0.6529352343833441
1.02168674726554E-6       0                        -0.009046908062854894    1.431980664169913        0.6991046564999471
1.023343121948416E-6      0                        -0.007584637472045939    1.3503765407110866       0.7403923582147625
1.0158894360868428E-6     0                        -0.016703236131699696    1.939703752243247        0.516117784902619
1.0172697483405068E-6     0                        -0.014428206462722032    1.773128681708516        0.5650120147390647
1.0186500605941707E-6     0                        -0.012448892419497124    1.637415663712           0.6106178317496486
1.012438655452683E-6      0                        -0.02421666949918375     2.613213190159933        0.3832798903796793
1.0135889156640696E-6     0                        -0.021386493236840054    2.3373145754375586       0.42897778119220775
1.0147391758754561E-6     0                        -0.018882015447581283    2.112811429476034        0.4732570793657835
1.0095630049242164E-6     0                        -0.033269968790773936    3.741734514295126        0.2677726508256612
1.010521555100372E-6      0                        -0.029900224337525816    3.2768282821097507       0.3062135876784752
1.0114801052765274E-6     0                        -0.026882457906901015    2.90065450741545         0.3447160008611331
1.0071666294838276E-6     0                        -0.043837177969912655    5.6873277439650805       0.17616136125811646
1.0079654212972905E-6     0                        -0.03993192640754603     4.878042230494025        0.20580156085690074
1.0087642131107534E-6     0                        -0.03640952334773793     4.229511153963076        0.2363386573772943
1.0051696499501703E-6     0                        -0.05597590251150208     9.195136355335968        0.10886440557935775
1.0058353097947228E-6     0                        -0.0515012395145466      7.715279101230946        0.13011534108553707
1.0065009696392753E-6     0                        -0.047454998000578695    6.546009564133706        0.15254765964350353
1.003505500338789E-6      0                        -0.06991239264446633     15.947602728692145       0.06260871050595157
1.0040602168759163E-6     0                        -0.06476371821915153     13.041123778303096       0.07689397844781239
1.0046149334130433E-6     0                        -0.060118221508026204    10.790301653807354       0.09231254347125123
1.0021187089959714E-6     0                        -0.08617910309965457     30.262279692692548       0.032776620433373274
1.0025809727769108E-6     0                        -0.08012241217256244     23.91915563574861        0.04177917548197444
1.0030432365578499E-6     0                        -0.07470017535394807     19.147596647153723       0.05172320550557017
1.001348269361073E-6      0                        -0.09845587815656422     49.16371789195528        0.020122495618081004
1.001733489178522E-6      0                        -0.09187321839533605     37.43602562164845        0.026089604651289837
9.996067270859343E-7      0                        -0.14393106965709695     296.813920771569         0.0033224168095410487
9.997378180572898E-7      0                        -0.14063780352318794     260.84382269918854       0.0037813796803014507
9.998689090286447E-7      0                        -0.136771945268276       224.92850141592342       0.004439098984540862
9.9E-7                    0                        -0.15758534350194559     513.018699719283         0.0019454801408288827
9.906554548567765E-7      0                        -0.15758520470202506     513.0170643576834        0.0019455550381925364
9.913109097135524E-7      0                        -0.1575848409713332      513.0158496100133        0.0019457298075168104
9.919663645703286E-7      0                        -0.1575842523098701      513.0150554762723        0.0019460044488017044
9.991364461541204E-7      0                        -0.1510378309350344      395.61209642960597       0.002520012808684726
9.99293206464725E-7       0                        -0.14921225061458773     367.334117042137         0.0027028447030387
9.994499667753296E-7      0                        -0.1468433301886084      334.40139182278693       0.0029703127033241516
9.985740780201408E-7      0                        -0.15493668966081348     462.27848825243746       0.0021624311805663594
9.987615340648007E-7      0                        -0.15401546106806585     445.4860121463648        0.0022413404878444875
9.989489901094605E-7      0                        -0.15271584149280526     423.2638815387396        0.0023605343638840263
9.979015907966091E-7      0                        -0.15669614384076952     495.6758563457452        0.0020172503425409712
9.98125753204453E-7       0                        -0.15631920168640917     488.29937639996547       0.0020473746252263497
9.98349915612297E-7       0                        -0.15573271695975674     477.1669203688556        0.0020957682379015093
9.970974217150265E-7      0                        -0.15733897575676872     508.3771632134757        0.001966457937601326
9.97365478075554E-7       0                        -0.15721639245462124     505.93573064135074       0.0019760244257406106
9.976335344360817E-7      0                        -0.15700211514928827     501.7019616854412        0.001992955227387159
9.96135785732744E-7       0                        -0.15752623226276366     512.0674392891218        0.0019518675226059415
9.964563310601715E-7      0                        -0.15749506296663746     511.46439651557694       0.0019543031737496316
9.96776876387599E-7       0                        -0.1574326441313058      510.23430449036215       0.001959166645414758
9.949858487560577E-7      0                        -0.1575703881624933      512.8730160175948        0.0019481064881949868
9.9536916108162E-7        0                        -0.15756378704243434     512.7665486010577        0.0019487688564476875
9.95752473407182E-7       0                        -0.15754906840919117     512.4980230249           0.001950022534584673
9.9361073896949E-7        0                        -0.15758061180676472     513.0007403649414        0.0019468312323808257
9.940691088983459E-7      0                        -0.15757884872253455     512.9883361734601        0.0019471104347851599
9.94527478827202E-7       0                        -0.15757544084111078     512.9457613910113        0.0019475355200565478
9.925144893700492E-7      0                        -0.157583431634476       513.0141402225269        0.0019462648403661255
9.930626141697695E-7      0                        -0.15758221813344084     513.0093685187494        0.0019465404348924984
