% Model:              BrushLayer_exp_full_eq.mph
% Version:            COMSOL 6.0.0.405
% Date:               Apr 20 2024, 11:37
% Dimension:          2
% Nodes:              84
% Expressions:        3
% Description:        , , 
% Length unit:        m
% R                       Z                        U0 (V)                   Cp0 (mol/m^3)            Cn0 (mol/m^3)
1.0749234174787756E-6     0                        -3.71175859421394E-5     1.0014625526408187       0.9985304003157984
1.0825647836979419E-6     0                        -2.1491661635723133E-5   1.0008443024725548       0.9991491593149535
1.0869232065975022E-6     0                        -1.354347558522458E-5    1.0005296843495128       0.9994636413652587
1.0925056839744374E-6     0                        -5.912056736515813E-6    1.0002276941291897       0.9997656102131426
1.0962759494173612E-6     0                        -2.3776629600512527E-6   1.0000879067609212       0.9999054803123294
1.0668718229074952E-6     0                        -6.907725974373674E-5    1.002725104895148        0.9972624903467127
1.0669425807402416E-6     0                        -6.835176643560324E-5    1.0026960759547379       0.9972909245268081
1.0669816099944158E-6     0                        -6.795496596918689E-5    1.0026801999827664       0.9973064773056471
1.0588490097809558E-6     0                        -1.9620863353232763E-4   1.0077966619476098       0.9922659199750496
1.0535097452508605E-6     0                        -3.350876018794392E-4    1.013349832201878        0.9868199012328341
1.05075443038304E-6       0                        -4.237219348612524E-4    1.0168964075710814       0.9833465174642718
1.038117984519134E-6      0                        -0.001597811721402365    1.0652819978175945       0.9386310643393512
1.0381179887966244E-6     0                        -0.0015978110572256884   1.0652819700591052       0.938631089263875
1.0423301332145031E-6     0                        -0.001035969314150169    1.0418899837986002       0.9598131904352107
1.043850420769758E-6      0                        -8.750535751265245E-4    1.0352310308805055       0.9659168163920616
1.0465422817987716E-6     0                        -6.446060600112718E-4    1.0257614540591997       0.9747183411874766
1.0495828584130543E-6     0                        -4.680446198662712E-4    1.0186329658174451       0.9815768076209502
1.0E-6                    0                        -0.132333494892381       189.06795692108346       0.005295574722972745
1.0003210165145414E-6     0                        -0.12202354584922574     126.60466490067658       0.007989826439403115
1.0006420330290821E-6     0                        -0.11322140834512308     85.39713142479205        0.01118306597594639
1.0009630495436233E-6     0                        -0.1059270823819388      65.44535648838827        0.014875293334197274
1.0309624458151815E-6     0                        -0.0034079533110757      1.1446070925730136       0.873746405754811
1.0333476248801361E-6     0                        -0.00265706760644345     1.1110920828723072       0.9001678602725821
1.0333476253831725E-6     0                        -0.002657067463635459    1.1110920765498453       0.9001678653394427
1.0357328044133846E-6     0                        -0.002053687053021024    1.084650383455442        0.9217960805354555
1.0249994968951745E-6     0                        -0.006378482354105238    1.2877523370557735       0.7767983387019148
1.0269871461939666E-6     0                        -0.005182877062106882    1.228293474865609        0.8145811454940909
1.0289747958095462E-6     0                        -0.004192700689946131    1.1805783918608999       0.8468971684220935
1.0200303727951355E-6     0                        -0.01076529406104323     1.532564701736568        0.6529352343839014
1.02168674726554E-6       0                        -0.009046908062845752    1.431980664169612        0.6991046565004023
1.023343121948416E-6      0                        -0.007584637472038518    1.3503765407107955       0.7403923582151305
1.0158894360868428E-6     0                        -0.01670323613168179     1.939703752243149        0.5161177849035082
1.0172697483405068E-6     0                        -0.01442820646270666     1.7731286817083043       0.5650120147398313
1.0186500605941707E-6     0                        -0.012448892419484001    1.6374156637117212       0.6106178317503044
1.012438655452683E-6      0                        -0.024216669499158176    2.613213190160659        0.3832798903809165
1.0135889156640696E-6     0                        -0.021386493236817235    2.3373145754378926       0.42897778119332386
1.0147391758754561E-6     0                        -0.01888201544756102     2.112811429476093        0.47325707936678363
1.0095630049242164E-6     0                        -0.03326996879074101     3.741734514297987        0.2677726508272045
1.010521555100372E-6      0                        -0.02990022433749537     3.276828282111662        0.3062135876799167
1.0114801052765274E-6     0                        -0.02688245790687302     2.90065450741665         0.3447160008624725
1.0071666294838276E-6     0                        -0.04383717796987438     5.6873277439723715       0.17616136125991783
1.0079654212972905E-6     0                        -0.039931926407509324    4.878042230499434        0.20580156085861398
1.0087642131107534E-6     0                        -0.036409523347703004    4.2295111539670085       0.2363386573789215
1.0051696499501703E-6     0                        -0.05597590251146228     9.19513635535134         0.1088644055814198
1.0058353097947228E-6     0                        -0.05150123951450682     7.715279101242944        0.13011534108750403
1.0065009696392753E-6     0                        -0.04745499800053943     6.546009564143009        0.15254765964538367
1.003505500338789E-6      0                        -0.06991239264443054     15.94760272872341        0.06260871050825871
1.0040602168759163E-6     0                        -0.06476371821911361     13.041123778327314       0.07689397845004402
1.0046149334130433E-6     0                        -0.06011822150798695     10.790301653826276       0.09231254347340118
1.0021187089959714E-6     0                        -0.08617910309963041     30.262279692763457       0.03277662043559744
1.0025809727769108E-6     0                        -0.08012241217253313     23.9191556358014         0.0417791754842952
1.0030432365578499E-6     0                        -0.07470017535391488     19.1475966471933         0.051723205507918604
1.001348269361073E-6      0                        -0.09845587815655363     49.163717892061825       0.02012249561986824
1.001733489178522E-6      0                        -0.0918732183953177      37.436025621741976       0.026089604653344416
9.996067270859343E-7      0                        -0.14393106965711824     296.8139207710853        0.003322416810603445
9.997378180572898E-7      0                        -0.14063780352321248     260.8438226984017        0.0037813796811668847
9.998689090286447E-7      0                        -0.13677194526830172     224.92850141509442       0.004439098985289903
9.9E-7                    0                        -0.1575853432734984      513.0186950787518        0.0019454792541769462
9.906554548567765E-7      0                        -0.15758520461513872     513.017062592964         0.0019455542584924405
9.913109097135524E-7      0                        -0.1575848409566746      513.0158493116671        0.0019457291897460448
9.919663645703286E-7      0                        -0.15758425229810621     513.0150552348612        0.0019460040479377593
9.991364461541204E-7      0                        -0.1510378309350346      395.61209642972767       0.0025200128093237966
9.99293206464725E-7       0                        -0.14921225061459578     367.3341170419858        0.0027028447040483464
9.994499667753296E-7      0                        -0.1468433301886235      334.40139182243394       0.002970312704474907
9.985740780201408E-7      0                        -0.1549366896608372      462.27848825801937       0.0021624311789924908
9.987615340648007E-7      0                        -0.1540154610680656      445.4860121507098        0.002241340487136437
9.989489901094605E-7      0                        -0.15271584149279718     423.26388154126454       0.0023605343639136224
9.979015907966091E-7      0                        -0.15669614384096728     495.6758563375627        0.0020172503292815586
9.98125753204453E-7       0                        -0.1563192016865559      488.2993763966734        0.0020473746180126335
9.98349915612297E-7       0                        -0.15573271695984545     477.16692037015173       0.0020957682345829746
9.970974217150265E-7      0                        -0.157338975756787       508.3771632163352        0.0019664579189419625
9.97365478075554E-7       0                        -0.15721639245474295     505.9357306385127        0.0019760244003555003
9.976335344360817E-7      0                        -0.1570021151494698      501.70196167892243       0.001992955203802033
9.96135785732744E-7       0                        -0.15752623226267887     512.0674392890382        0.0019518676234831277
9.964563310601715E-7      0                        -0.1574950629665371      511.4643965189429        0.001954303227128771
9.96776876387599E-7       0                        -0.1574326441312398      510.23430449470897       0.001959166658948381
9.949858487560577E-7      0                        -0.1575703881623296      512.8730160160308        0.0019481065866093336
9.9536916108162E-7        0                        -0.15756378704234142     512.7665485985818        0.001948768987837531
9.95752473407182E-7       0                        -0.1575490684091245      512.4980230229176        0.0019500226667954626
9.9361073896949E-7        0                        -0.15758061180585048     513.000740347154         0.0019468311839685773
9.940691088983459E-7      0                        -0.1575788487220173      512.988336166174         0.0019471104324969121
9.94527478827202E-7       0                        -0.15757544084084374     512.9457613891329        0.0019475355667104982
9.925144893700492E-7      0                        -0.15758343162940008     513.0141401162352        0.001946264600617067
9.930626141697695E-7      0                        -0.15758221813198148     513.0093684869989        0.001946540312627339
