% Model:              BrushLayer_exp_full_eq.mph
% Version:            COMSOL 6.0.0.405
% Date:               Apr 19 2024, 12:11
% Dimension:          2
% Nodes:              98
% Expressions:        3
% Description:        , , 
% Length unit:        m
% R                       Z                        U0 (V)                   Cp0 (mol/m^3)            Cn0 (mol/m^3)
1.088087905751467E-6      0                        -1.0140056479575587E-5   1.0003476410944538       0.9995981371840893
1.0962759494173612E-6     0                        -5.8736057639344914E-6   1.0001845231829276       0.9997671414451083
1.0738689769162755E-6     0                        -4.2361683094431026E-5   1.0016152762339843       0.9983278058408326
1.0796691367601236E-6     0                        -1.79504703267393E-5     1.0006499408486498       0.9992892838313374
1.0815100691959093E-6     0                        -1.3448369787959159E-5   1.000472677397944        0.9994667510203679
1.0711451814259245E-6     0                        -5.806685355341761E-5    1.002235425050021        0.9977074780819291
1.069920330389262E-6      0                        -6.613429198828801E-5    1.00255418407014         0.9973888650295464
1.0623882407290428E-6     0                        -1.2945059359445224E-4   1.0050583214812292       0.9948887132599381
1.0459522761594534E-6     0                        -7.113629099542259E-4    1.02845109308907         0.9722136072427277
1.0459522909237241E-6     0                        -7.113619405981329E-4    1.0284510538667717       0.9722136447796297
1.0514309310644606E-6     0                        -4.078261892461676E-4    1.0161872590555063       0.9839856650738465
1.0522900818382098E-6     0                        -3.701643805449186E-4    1.0146691810897597       0.9854495316632925
1.0569095858967518E-6     0                        -2.138554199551809E-4    1.008389668635324        0.9915440336398272
1.0586278897481539E-6     0                        -1.7558997307450577E-4   1.006864117232519        0.9930465830913572
1.0E-6                    0                        -0.13284050787001248     188.41117609464717       0.00508341912925268
1.0006420330290821E-6     0                        -0.11442316920535477     93.45265238398758        0.010996611176894239
1.0012840660581643E-6     0                        -0.10008555810364278     42.32624341727921        0.01872017729901318
1.0019260990872465E-6     0                        -0.08982767456471288     35.031949116521695       0.028254117504124154
1.0338662900597131E-6     0                        -0.0025362302287040323   1.1056341847827815       0.9044487577313782
1.0378949511301825E-6     0                        -0.0016792898658264273   1.0688065295909588       0.9357717683898986
1.0419236130652058E-6     0                        -0.0010710007116256659   1.0430788301846132       0.9583600532140837
1.02456937767518E-6       0                        -0.00672432531940277     1.3056567004707675       0.7662280303634948
1.0276683479243855E-6     0                        -0.004880339848706566    1.2140186257726084       0.8246693183753881
1.0307673186599439E-6     0                        -0.00348430809495603     1.1473444504929358       0.8707428955863046
1.0174179066558802E-6     0                        -0.014296534948457389    1.7641159267008264       0.5676844849978601
1.0198017299959513E-6     0                        -0.011135027670729849    1.557667219411133        0.6442032599027758
1.0221855536486919E-6     0                        -0.008610957723691581    1.4048474708631349       0.7103844426147959
1.011916775052795E-6      0                        -0.025816991269759535    2.7886356210900938       0.35964615913724196
1.0137504855871567E-6     0                        -0.02118676804371444     2.3252858069342306       0.43301368451508754
1.0155841961215184E-6     0                        -0.017346615936286797    1.9837792421696685       0.5023597931348529
1.007685135358114E-6      0                        -0.04155393794203706     5.208990956683713        0.19272605248550978
1.0090956819230077E-6     0                        -0.035362876556233706    4.089670537378772        0.24713473133775724
1.0105062284879012E-6     0                        -0.030117227665152124    3.2828854255744937       0.30277476688057414
1.0044300279006671E-6     0                        -0.062133975811679606    11.769735256263553       0.08515274161485512
1.005515063719816E-6      0                        -0.05406253609445224     8.603643890721512        0.11787742855575326
1.006600099538965E-6      0                        -0.047202523470859375    6.416729124164345        0.15373519883899808
1.0027607420250534E-6     0                        -0.0787402337998256      22.898322232794214       0.04437574831015238
1.0035953849628603E-6     0                        -0.06950900088136637     15.144250942947652       0.06334195634330962
9.994999999999984E-7      0                        -0.1465431935058672      322.31499328564814       0.0029414049109913083
9.996666666666659E-7      0                        -0.14290629233833024     278.8506160318843        0.00338065916041757
9.998333333333327E-7      0                        -0.13833873045972936     234.21601030171755       0.004094663899835264
9.904999999999978E-7      0                        -0.1581433505325445      513.0162298139596        0.0018693624576338363
9.906666666666646E-7      0                        -0.15814333789365873     513.01613021578          0.0018693609430816824
9.90833333333331E-7       0                        -0.15814332170530024     513.0160353247084        0.001869358505351034
9.909999999999978E-7      0                        -0.15814330196746923     513.0159451407451        0.0018693551444418925
9.9E-7                    0                        -0.15814335406641397     NaN                      NaN
9.90166666666666E-7       0                        -0.158143355639026       513.0164745108922        0.0018693599925101146
9.903333333333318E-7      0                        -0.15814335446106953     513.0163411678019        0.0018693617241075334
9.989999999999982E-7      0                        -0.15288176177894197     416.15982873040997       0.0022972309329325016
9.99166666666665E-7       0                        -0.15129381637165315     390.21061869669865       0.002441969313690098
9.993333333333316E-7      0                        -0.14918096028063002     358.92900688180487       0.002656693973042853
9.984999999999984E-7      0                        -0.15580556416612049     467.6695374804745        0.00204804036962238
9.986666666666652E-7      0                        -0.1550863086853384      454.3884387137203        0.0021063713974033994
9.988333333333316E-7      0                        -0.1541117078896136      437.2185357970566        0.0021894349185066554
9.979999999999981E-7      0                        -0.1571135886524962      492.6077122820655        0.0019452327073577282
9.98166666666665E-7       0                        -0.15679463016573333     486.39628346174106       0.0019697383963316606
9.983333333333315E-7      0                        -0.15635862200360814     478.0835585278778        0.002004007617086542
9.97499999999998E-7       0                        -0.15769058163996302     503.995549528961         0.0019015849705457807
9.976666666666649E-7      0                        -0.15755042359967766     501.20412327608784       0.0019120663922281948
9.978333333333315E-7      0                        -0.15735809260385528     497.4081775271212        0.0019266156378321836
9.96999999999998E-7       0                        -0.15794364565740326     509.0608640843085        0.001882852285262775
9.971666666666649E-7      0                        -0.15788225555401328     507.8280855957469        0.0018873596226272372
9.973333333333315E-7      0                        -0.15779790088153328     506.13964741063273       0.0018936038510548993
9.964999999999982E-7      0                        -0.1580544922308193      511.2879192129469        0.0018748073218441438
9.966666666666648E-7      0                        -0.15802759701835883     510.74761292235564       0.0018767395831522295
9.968333333333314E-7      0                        -0.15799064816055355     510.00526121281064       0.0018794212376251034
9.95999999999998E-7       0                        -0.15810313950520996     512.2621139139133        0.0018713811970132953
9.961666666666648E-7      0                        -0.15809131624815764     512.0260906176966        0.0018721987930273866
9.963333333333314E-7      0                        -0.15807510049002746     511.70135905070816       0.0018733408346376696
9.954999999999981E-7      0                        -0.1581246159202511      512.6873155888868        0.0018699544195903061
9.95666666666665E-7       0                        -0.15811937600688453     512.5843618809766        0.0018702896873529367
9.958333333333314E-7      0                        -0.15811221720187088     512.4426279893189        0.0018707652798272659
9.94999999999998E-7       0                        -0.1581342163397636      512.8727212155518        0.0018693905981350277
9.951666666666647E-7      0                        -0.15813185584205397     512.8278409200279        0.0018695182129974171
9.953333333333315E-7      0                        -0.15812865570221646     512.7660390444729        0.0018697061534825097
9.944999999999978E-7      0                        -0.1581386122823085      512.953531761055         0.001869195782172482
9.946666666666647E-7      0                        -0.15813751596805725     512.9339725233231        0.0018692351824672797
9.948333333333313E-7      0                        -0.1581360506538756      512.9070356748223        0.0018693001211214613
9.93999999999998E-7       0                        -0.15814071302724836     512.9887476599622        0.0018691552046055293
9.941666666666646E-7      0                        -0.15814017653267426     512.9802243878719        0.0018691583123959811
9.943333333333312E-7      0                        -0.15813947628436095     512.9684857549029        0.0018691718382516315
9.93499999999998E-7       0                        -0.15814178753235933     513.0040940272049        0.0018691755742009976
9.936666666666648E-7      0                        -0.15814150356249446     513.0003795933384        0.0018691649268604631
9.938333333333314E-7      0                        -0.15814114539412408     512.9952641375907        0.0018691581369953065
9.929999999999977E-7      0                        -0.15814238973843667     513.0107839513146        0.0018692164657761775
9.931666666666646E-7      0                        -0.15814222407483167     513.009164167887         0.0018692018141059084
9.933333333333312E-7      0                        -0.15814202333947255     513.0069341931836        0.001869188183580848
9.92499999999998E-7       0                        -0.15814276191867435     513.0137060529648        0.0018692604435491997
9.926666666666647E-7      0                        -0.1581426557840465      513.012997236382         0.0018692459816618866
9.928333333333311E-7      0                        -0.1581425317239672      513.0120232024985        0.0018692313224042128
9.919999999999979E-7      0                        -0.15814301053820826     513.0149957866045        0.0018693000415538725
9.921666666666645E-7      0                        -0.15814293801431484     513.0146799190306        0.0018692875588869231
9.923333333333313E-7      0                        -0.15814285514113688     513.0142500078177        0.0018692743595520329
9.914999999999976E-7      0                        -0.15814318307999686     513.0155958395604        0.0018693320777838395
9.916666666666644E-7      0                        -0.15814313247014722     513.015442014975         0.0018693223382650708
9.91833333333331E-7       0                        -0.1581430749562178      513.0152419973232        0.0018693116595217489
9.911666666666644E-7      0                        -0.15814326748578797     513.015840766651         0.0018693485012482804
9.91333333333331E-7       0                        -0.1581432278566305      513.0157243329229        0.001869340812362263
