% Model:              BrushLayer_exp_full_eq.mph
% Version:            COMSOL 6.0.0.405
% Date:               Apr 20 2024, 10:51
% Dimension:          2
% Nodes:              86
% Expressions:        3
% Description:        , , 
% Length unit:        m
% R                       Z                        U0 (V)                   Cp0 (mol/m^3)            Cn0 (mol/m^3)
1.0749234174787756E-6     0                        -4.336802112534536E-5    1.0015519385417666       0.9982829796227459
1.0825647836979419E-6     0                        -2.5717351257985322E-5   1.000871730713962        0.9989818833822266
1.0869232065975022E-6     0                        -1.6731483203051766E-5   1.00052587402026         0.9993373747087885
1.0925056839744374E-6     0                        -8.082751220576166E-6    1.000194733577069        0.9996795558283109
1.0962759494173612E-6     0                        -4.059412255842911E-6    1.0000421605385597       0.9998387595339365
1.0668718229074952E-6     0                        -7.937252036661435E-5    1.002944605466084        0.9968543847475566
1.0669425807402416E-6     0                        -7.855953973581818E-5    1.002912368643127        0.996886209240692
1.0669816099944158E-6     0                        -7.81148763315557E-5     1.002894738902451        0.9969036170691618
1.0588490097809558E-6     0                        -2.2150840746005886E-4   1.008587705712036        0.9912734962038753
1.0535097452508605E-6     0                        -3.766364385438261E-4    1.0147734848867027       0.9851977739654806
1.05075443038304E-6       0                        -4.75614097657569E-4     1.0187253709857356       0.9813241449009344
1.038117984519134E-6      0                        -0.001780846884017945    1.0730819995006968       0.9318445903202781
1.0381179887966244E-6     0                        -0.00178084614322891     1.0730819683795716       0.9318446179449122
1.0423301332145031E-6     0                        -0.0011567405904696795   1.0467510082930922       0.9552363381070134
1.043850420769758E-6      0                        -9.779077581887673E-4    1.0392642759831567       0.9619848193686553
1.0465422817987716E-6     0                        -7.216630050079865E-4    1.0286321324596837       0.9717295226088322
1.0495828584130543E-6     0                        -5.250739679951903E-4    1.0206564406227274       0.9793480274014164
1.0E-6                    0                        -0.19210934749010727     1887.1777302700896       4.608657599810731E-4
1.0003210165145414E-6     0                        -0.1659371606605486      690.7821192334823        0.0014580286701396166
1.0006420330290821E-6     0                        -0.1466978163386131      131.12072112024936       0.0028643672022040773
1.0009630495436233E-6     0                        -0.13439131451945677     208.19353419644486       0.004679881359745533
1.0309624458151815E-6     0                        -0.0037852503686349017   1.163217592041298        0.8608016862105633
1.0333476248801361E-6     0                        -0.0029540922751833203   1.125035249958654        0.8896616890973054
1.0333476253831725E-6     0                        -0.002954092117082234    1.125035242764029        0.8896616946377751
1.0357328044133846E-6     0                        -0.0022859577542763015   1.0949900511018495       0.9133426579243998
1.0249994968951745E-6     0                        -0.007068908446544806    1.3281454896993172       0.7558791469974611
1.0269871461939666E-6     0                        -0.005747881685888158    1.2593292487638683       0.7966096510328828
1.0289747958095462E-6     0                        -0.004653328966219766    1.2043532810870954       0.8315838313678677
1.0200303727951355E-6     0                        -0.011912956582666523    1.6162494460021464       0.6239680683528683
1.02168674726554E-6       0                        -0.010015624359587196    1.4970870775965688       0.6728743698977661
1.023343121948416E-6      0                        -0.008400941623372724    1.4010524231549726       0.7168447297019298
1.0158894360868428E-6     0                        -0.01847685991929722     2.109959252208125        0.48114468163816754
1.0172697483405068E-6     0                        -0.015960108597633842    1.9060778882714156       0.5318432205408654
1.0186500605941707E-6     0                        -0.013772140796944578    1.7415079515086056       0.5794510166581012
1.012438655452683E-6      0                        -0.026823181527975595    2.9609132682569124       0.34568714483838375
1.0135889156640696E-6     0                        -0.023672435838259127    2.6078974753671686       0.39191332933639783
1.0147391758754561E-6     0                        -0.02089032863519139     2.324246136728674        0.43706584160065837
1.0095630049242164E-6     0                        -0.03698957652464035     4.468775739171112        0.23103897454629913
1.010521555100372E-6      0                        -0.03318916592852597     3.8368790940117976       0.2688306238735293
1.0114801052765274E-6     0                        -0.02980036759616432     3.33425827045377         0.30704668063394563
1.0071666294838276E-6     0                        -0.04908933984901123     7.277624582625612        0.1429726779591798
1.0079654212972905E-6     0                        -0.04458443050308287     6.081337616477847        0.17112839537291177
1.0087642131107534E-6     0                        -0.04055117606152299     5.145054668813083        0.20048382756542807
1.0051696499501703E-6     0                        -0.06344237582231048     12.936270551770034       0.08086029401863397
1.0058353097947228E-6     0                        -0.058087553668331245    10.467075405028027       0.10016091544542964
1.0065009696392753E-6     0                        -0.05330320834382499     8.580860082297038        0.12086504342346494
1.003505500338789E-6      0                        -0.08079913865036412     25.81921222076099        0.04053683325980369
1.0040602168759163E-6     0                        -0.07426140661011038     19.985594087515597       0.05269417157188624
1.0046149334130433E-6     0                        -0.06847581900069145     15.691280198512029       0.06613532515692917
1.0021187089959714E-6     0                        -0.10289589458522236     61.758247276341265       0.01676586974597497
1.0025809727769108E-6     0                        -0.09439262175101462     44.47671084444861        0.02365510134813374
1.0030432365578499E-6     0                        -0.08702703643925615     32.4970324929425         0.03157875585204412
1.001348269361073E-6      0                        -0.12169387431171723     129.93941317252387       0.007950921767662072
1.001733489178522E-6      0                        -0.11119540099955756     81.12765082292856        0.011979584562586168
9.999606727085937E-7      0                        -0.20101265143181454     2529.023740662471        3.1416872231384153E-4
9.999737818057293E-7      0                        -0.19750689629096133     2217.656998846044        3.6314151093998383E-4
9.999868909028645E-7      0                        -0.194539128310429       2003.7083287175449       4.1204052349511755E-4
9.996135785732745E-7      0                        -0.21466787163839576     4589.415737703629        1.890885974834698E-4
9.996456331060174E-7      0                        -0.21418116557091949     4499.155118168604        1.9258893955369515E-4
9.9967768763876E-7        0                        -0.21361164671611224     4395.548286408466        1.9680531702424449E-4
9.99709742171503E-7       0                        -0.21295931507396026     4278.595242420713        2.0173772989521839E-4
9.994985848756058E-7      0                        -0.2159080001719305      4825.165053096027        1.8060594809851422E-4
9.99536916108162E-7       0                        -0.21556612236472805     4759.232987886471        1.828663258008272E-4
9.995752473407184E-7      0                        -0.2151527461868812      4680.649882755299        1.8569387559582687E-4
9.99361073896949E-7       0                        -0.21674142495689644     4988.574390043113        1.7539705645690308E-4
9.994069108898348E-7      0                        -0.21652379827520488     4945.453156482979        1.767005590162069E-4
9.9945274788272E-7        0                        -0.21624599001355152     4890.98337750101         1.784368562300653E-4
9.99196636457033E-7       0                        -0.21720832836576798     5082.084369461862        1.7274348249533974E-4
9.99251448937005E-7       0                        -0.21709762519026043     5059.755686220455        1.733466895747781E-4
9.99306261416977E-7       0                        -0.21694199072063694     5028.585693080942        1.7423121422863056E-4
9.990734385661027E-7      0                        -0.21734531740399504     5109.789448125114        1.7201388981580187E-4
9.990734635694667E-7      0                        -0.21734530399420413     5109.7867071038045       1.7201396212037355E-4
9.989999999999999E-7      0                        -0.21736705199965883     5114.3060159170345       1.7189443771283358E-4
9.991389665985467E-7      0                        -0.21729248809586013     5099.064798798499        1.722964850934351E-4
9.99138991846636E-7       0                        -0.21729246003615926     5099.059123909533        1.72296634537879E-4
9.999136446154119E-7      0                        -0.20444015276783423     2962.784600645453        2.775482659383334E-4
9.999293206464725E-7      0                        -0.20337880400419495     2822.9539627557924       2.884579949561677E-4
9.99944996677533E-7       0                        -0.20223630355883282     2678.3670094255754       3.0066481374826026E-4
9.998574078020141E-7      0                        -0.2076725958427029      3419.6453685895767       2.4637993155160036E-4
9.9987615340648E-7        0                        -0.20668972724296064     3275.3536377171295       2.555139610495531E-4
9.99894899010946E-7       0                        -0.20561224621801072     3123.066715069961        2.6590340584506855E-4
9.99790159079661E-7       0                        -0.21055627421133        3869.9912135553095       2.210829768474644E-4
9.998125753204454E-7      0                        -0.20969910335059883     3731.4773395373204       2.283503770995014E-4
9.998349915612298E-7      0                        -0.20873787722771933     3581.362057881478        2.3678269533424648E-4
9.997365478075558E-7      0                        -0.2122646242402043      4157.011726632368        2.0715311007793986E-4
9.997633534436084E-7      0                        -0.21146361061932764     4020.8103836772634       2.1360152572868802E-4
