% Model:              BrushLayer_exp_full_eq.mph
% Version:            COMSOL 6.0.0.405
% Date:               Apr 20 2024, 11:29
% Dimension:          2
% Nodes:              86
% Expressions:        3
% Description:        , , 
% Length unit:        m
% R                       Z                        U0 (V)                   Cp0 (mol/m^3)            Cn0 (mol/m^3)
1.0749234174787756E-6     0                        -4.472480539698872E-5    1.0014988721799865       0.9982293500321241
1.0825647836979419E-6     0                        -2.701727462231033E-5    1.0008206398718318       0.9989304654366171
1.0869232065975022E-6     0                        -1.800107697385962E-5    1.0004758537973613       0.9992871366527774
1.0925056839744374E-6     0                        -9.31475884295742E-6     1.0001460742882937       0.9996307857637501
1.0962759494173612E-6     0                        -5.26683668138405E-6     0.9999944138036329       0.9997909534209769
1.0668718229074952E-6     0                        -8.07920133600908E-5     1.002889655311935        0.9967983578117435
1.0669425807402416E-6     0                        -7.997841246117578E-5    1.002857433312064        0.9968302047540847
1.0669816099944158E-6     0                        -7.953340744866887E-5    1.002839811760782        0.9968476249548125
1.0588490097809558E-6     0                        -2.2300088796681165E-4   1.0085314425774754       0.9912149392097087
1.0535097452508605E-6     0                        -3.7818621407897056E-4   1.014716561566812        0.9851373485588855
1.05075443038304E-6       0                        -4.7719616650189543E-4   1.0186681737585639       0.9812626975855514
1.038117984519134E-6      0                        -0.0017821843385113752   1.0730438482967455       0.9317959238621452
1.0381179887966244E-6     0                        -0.0017821835976343993   1.0730438171742307       0.9317959514881581
1.0423301332145031E-6     0                        -0.0011582547428474598   1.0467018016002907       0.9551792292583099
1.043850420769758E-6      0                        -9.794623148612974E-4    1.0392122350305204       0.9619256905352295
1.0465422817987716E-6     0                        -7.232586956059932E-4    1.0285765770885176       0.9716681534704464
1.0495828584130543E-6     0                        -5.266693786563097E-4    1.0205992275485691       0.9792861819907784
1.0E-6                    0                        -0.19201220016725742     1887.2884470493516       4.626589550768596E-4
1.0003210165145414E-6     0                        -0.16584119569122038     690.8485701372023        0.0014627860787289463
1.0006420330290821E-6     0                        -0.14660333734487752     131.1617037089372        0.002873057209862779
1.0009630495436233E-6     0                        -0.13429862512338303     208.22784603042112       0.00469347235206157
1.0309624458151815E-6     0                        -0.0037855795485886696   1.163231057694477        0.8607921894400263
1.0333476248801361E-6     0                        -0.002954870652485417    1.1250260539322112       0.8896354684303717
1.0333476253831725E-6     0                        -0.0029548704944671405   1.1250260467333826       0.8896354739677009
1.0357328044133846E-6     0                        -0.0022870722231078584   1.0949636494555763       0.9133033806944238
1.0249994968951745E-6     0                        -0.007066997145555754    1.3282721520712184       0.7559395946918048
1.0269871461939666E-6     0                        -0.0057469429370214245   1.2594063194800627       0.7966416887854888
1.0289747958095462E-6     0                        -0.004653137044359174    1.204392619562359        0.8315925542983412
1.0200303727951355E-6     0                        -0.011906807590995256    1.6166092045974831       0.6241243775893468
1.02168674726554E-6       0                        -0.010011233343841333    1.4973468460350297       0.6729949796972302
1.023343121948416E-6      0                        -0.008397963171215349    1.4012344928503486       0.7169333856538728
1.0158894360868428E-6     0                        -0.018463908539900972    2.1107616726039393       0.481395169550424
1.0172697483405068E-6     0                        -0.015949865163859666    1.9066941741504821       0.5320625381572978
1.0186500605941707E-6     0                        -0.013764164825758065    1.7419766834537131       0.5796389413821909
1.012438655452683E-6      0                        -0.02680072810696176     2.9624994584297353       0.3459950850961076
1.0135889156640696E-6     0                        -0.02365363055153742     2.6091598096616555       0.39220652363825914
1.0147391758754561E-6     0                        -0.0208746906956685      2.3252472144317946       0.43733988512062977
1.0095630049242164E-6     0                        -0.036955321128428316    4.471671118946479        0.23134827110862088
1.010521555100372E-6      0                        -0.03315929920105416     3.839241616650668        0.26914577737339584
1.0114801052765274E-6     0                        -0.02977443486041975     3.336184396559703        0.3073613820322075
1.0071666294838276E-6     0                        -0.04904183725108453     7.282607438982955        0.14323337085681476
1.0079654212972905E-6     0                        -0.04454171379228792     6.085481548665141        0.17141073633452714
1.0087642131107534E-6     0                        -0.04051287508462921     5.148502775474575        0.20078236974855654
1.0051696499501703E-6     0                        -0.0633812957538977      12.944473559437101       0.08104570297745649
1.0058353097947228E-6     0                        -0.05803124578810041     10.473997567960637       0.10037445818094475
1.0065009696392753E-6     0                        -0.05325142628708753     8.58670886146152         0.12110368080522853
1.003505500338789E-6      0                        -0.08072531453284426     25.8323046605139         0.040645853537402236
1.0040602168759163E-6     0                        -0.0741919342991456      19.996760095640866       0.052829221271578485
1.0046149334130433E-6     0                        -0.06841059470609501     15.700816395943942       0.06629583775035922
1.0021187089959714E-6     0                        -0.10281121900409541     61.778842410381095       0.01681516448503569
1.0025809727769108E-6     0                        -0.09431151978007876     44.494407239210965       0.023723193010270486
1.0030432365578499E-6     0                        -0.08694955162285634     32.51222798961056        0.031666756027031985
1.001348269361073E-6      0                        -0.12160364803761786     129.9686607662498        0.00797464727863628
1.001733489178522E-6      0                        -0.11110784599710835     81.15232618334005        0.012015211322481376
9.999606727085937E-7      0                        -0.20091619749437906     2529.091451597007        3.1511885907205305E-4
9.999737818057293E-7      0                        -0.1974101469112326      2217.740679977274        3.6421841906006755E-4
9.999868909028645E-7      0                        -0.19444214780222882     2003.8063451303494       4.133984510610543E-4
9.996135785732745E-7      0                        -0.21457174016319694     4589.434929401312        1.8978569752565894E-4
9.996456331060174E-7      0                        -0.21408500226258861     4499.176026264369        1.9329318930999553E-4
9.9967768763876E-7        0                        -0.2135154515982928      4395.571266007683        1.975179821597103E-4
9.99709742171503E-7       0                        -0.21286308817029567     4278.620648628749        2.0246007607490423E-4
9.994985848756058E-7      0                        -0.21581196355706486     4825.180635358267        1.8128528471812226E-4
9.99536916108162E-7       0                        -0.21547005489913323     4759.249389342914        1.8355057433361364E-4
9.995752473407184E-7      0                        -0.21505664710117528     4680.667487356888        1.8638404526947374E-4
9.99361073896949E-7       0                        -0.21664542752313182     4988.589894662453        1.7606455367670374E-4
9.994069108898348E-7      0                        -0.21642778931795428     4945.468192230158        1.7737116848128595E-4
9.9945274788272E-7        0                        -0.2161499679959339      4890.998439129156        1.7911141216174682E-4
9.99196636457033E-7       0                        -0.21711214318236355     5082.105386951806        1.7340578230311604E-4
9.99251448937005E-7       0                        -0.2170015047962191      5059.774138843809        1.7401010941606147E-4
9.99306261416977E-7       0                        -0.2168459329098089      5028.602308080762        1.748963665405886E-4
9.990734385661027E-7      0                        -0.21724908635582185     5109.819847313707        1.726745081922535E-4
9.990734635694667E-7      0                        -0.21724907299716847     5109.817103919612        1.7267458033960357E-4
9.989999999999999E-7      0                        -0.2172706190302068      5114.343968787456        1.725561316731071E-4
9.991389665985467E-7      0                        -0.21719633955461537     5099.089558230754        1.7295730441760072E-4
9.99138991846636E-7       0                        -0.21719631150431565     5099.083881419687        1.7295745420624947E-4
9.999136446154119E-7      0                        -0.20434372199769177     2962.84199235959         2.784255026236868E-4
9.999293206464725E-7      0                        -0.20328236402285396     2823.014727533018        2.89357054333023E-4
9.99944996677533E-7       0                        -0.2021398558550608      2678.431213942934        3.015881731494019E-4
9.998574078020141E-7      0                        -0.2075762081321632      3419.691553746331        2.471943022848548E-4
9.9987615340648E-7        0                        -0.20659332356924012     3275.403386641479        2.563468484777763E-4
9.99894899010946E-7       0                        -0.2055158281910893      3123.1201995134384       2.6675724859065783E-4
9.99790159079661E-7       0                        -0.21045995365915757     3870.026296739213        2.2184560115832543E-4
9.998125753204454E-7      0                        -0.20960275888019014     3731.515821974325        2.2912795425609448E-4
9.998349915612298E-7      0                        -0.2086415103711882      3581.4042409760996       2.3757752129830413E-4
9.997365478075558E-7      0                        -0.2121683649615634      4157.039930803069        2.078868267086547E-4
9.997633534436084E-7      0                        -0.21136732012451748     4020.8418135065867       2.1434866840312796E-4
